1939
Lattice="27.8 0.0 0.0 0.0 27.8 0.0 0.0 0.0 27.8" Properties=species:S:1:pos:R:3:forces:R:3 Built=T with=T Packmol=T energy=-9269.902 free_energy=-9269.902 stress="-0.004349750000983477 -0.0002612222742754966 7.762210589135066e-05 -0.0002612222742754966 -0.0047273822128772736 0.0002616903802845627 7.762210589135066e-05 0.0002616903802845627 -0.004837128333747387" pbc="T T T"
Na      10.22541636      10.23364884      10.29712653      -0.09155925       0.07880572      -0.12432706
Cl      12.90328522       9.88056496      10.01971831      -0.03656209      -0.01967342      -0.02731964
Na      10.10331657      13.02181061      12.83048466       0.09071081      -0.00767592      -0.04110578
Cl      12.94627067      12.97937108      12.74261170       0.02796718      -0.01799591      -0.03719467
Na      12.87229719      10.31485661      12.81459054      -0.03338598      -0.04904807       0.01125313
Cl      10.05327528      10.23801682      12.84125215       0.00822886       0.03907263      -0.00021859
Na      12.96622946      13.05054775       9.98866980      -0.05297417       0.00357226      -0.04062500
Cl      10.20355785      12.87964428       9.98071243      -0.02563998       0.05636315      -0.07995398
Na      10.18601846      10.20720595      15.50390935      -0.08124254      -0.04521585      -0.04781528
Cl      12.84418617      10.12611837      15.44273487       0.00431519       0.02558289       0.06068299
Na      10.26620136      12.66587062      18.25512863      -0.08024721      -0.02476830       0.02416403
Cl      12.92396967      12.65348400      18.31455518      -0.03635576       0.16624087      -0.01401130
Na      12.93481969       9.49698796      18.13495062       0.07596241      -0.00240459       0.05418569
Cl       9.14219211      10.23754499      17.86278764      -0.16900256       0.12988843       0.04672414
Na      12.83119876      12.86758071      15.62397550       0.00343698       0.01425756      -0.04097131
Cl      10.02556150      12.95892257      15.49846187       0.01831360       0.01215613      -0.01507493
Na      10.11479566      15.80499341      10.08124202       0.06839098       0.05388480      -0.04037221
Cl      12.96906162      15.83875528      10.12612275      -0.03105721       0.02420799      -0.11186301
Na      10.20566473      18.35791671      12.98807636      -0.08485724       0.06113025       0.04800435
Cl      12.92052383      18.52793273      12.92798869       0.04110543       0.10823408      -0.01154323
Na      12.92603483      15.78106752      12.92809230      -0.06270686      -0.00588527       0.01141044
Cl      10.15207794      15.69998985      12.80205395      -0.06760260       0.00331604      -0.04378422
Na      13.07631242      18.53078371       9.80533047      -0.03180845      -0.17718954       0.29573143
Cl      10.33684782      18.68203486      10.16237212      -0.10523891      -0.07794324       0.03610419
Na      10.02576322      15.78440933      15.61874639      -0.08692403      -0.04103579      -0.00706414
Cl      12.81209091      15.65550445      15.73138363      -0.02106578       0.02887518      -0.04586681
Na      10.06198750      18.03447078      18.80754113      -0.10599841      -0.05637231       0.01054204
Cl      12.80561983      18.36295628      18.49178885      -0.09523146       0.05969773       0.00973709
Na      12.72496141      15.66312428      18.53766721       0.05866460      -0.08368091       0.05567096
Cl       9.58901067      15.40491261      18.24628508      -0.03149686      -0.05510064       0.03285140
Na      12.81285751      18.47588104      15.76158450      -0.03887386       0.05594735      -0.00606985
Cl      10.11270923      18.54695138      15.74672693      -0.04697242      -0.04794773      -0.00491130
Na      15.72833516      10.30859930      10.12316566       0.06002578      -0.03843285      -0.03856631
Cl      18.50678404      10.10605121      10.16660300       0.02813040       0.00280879      -0.03018327
Na      15.75095792      12.83008821      12.92435152       0.00911532       0.00363732       0.02209410
Cl      18.53651149      12.79926817      12.90662016      -0.01318428      -0.09800859       0.02099458
Na      18.34497811      10.02458477      13.08303975       0.00519839      -0.04288277      -0.05675362
Cl      15.64080710       9.98763358      12.75891535      -0.02587987       0.02433491      -0.03890414
Na      18.59922907      12.90092288      10.20367639       0.07961778       0.03445102      -0.07280886
Cl      15.72527815      12.94170438       9.79338470       0.00884542      -0.02875249      -0.04346779
Na      15.50834328       9.74551274      15.82264150       0.04416546      -0.16941376      -0.04262042
Cl      18.29325147      10.09011278      15.83335807       0.12420724      -0.03940840      -0.02717394
Na      15.62094757      12.83286811      18.41058429       0.04363136       0.00614646       0.02424515
Cl      18.65038077      12.96380804      18.72712305      -0.08095182      -0.09571318       0.02215657
Na      18.07693430      10.18561447      18.70343054       0.05451486      -0.10044606       0.06472550
Cl      15.53371727      10.08183408      18.51242451       0.00236391       0.02694051       0.02136691
Na      18.37240242      12.78743833      15.91071188       0.01875153      -0.02895098       0.00578041
Cl      15.61724136      12.83354944      15.66179045       0.03372569      -0.02626599       0.01723922
Na      15.74007419      15.69138013      10.23291194       0.07145238      -0.02015936      -0.00276166
Cl      18.45893590      15.60309460      10.13781552       0.10375909       0.01301431      -0.00090989
Na      15.62168722      18.31415036      13.17400735       0.08870484       0.19364680      -0.20548679
Cl      18.42629908      18.51233577      13.12462477       0.10584142       0.07348112       0.00992027
Na      18.42902909      15.73947188      12.88071527       0.00193747      -0.12228736      -0.03724340
Cl      15.67936161      15.55519829      12.96754431      -0.02328729       0.09410094       0.04134181
Na      18.71388167      18.27148624      10.20859040       0.12043558       0.06765891       0.16658527
Cl      15.85926377      18.37110797      10.31583606       0.10986705      -0.03665232      -0.17242038
Na      15.48349522      15.65587839      15.88278718       0.08786370      -0.02876250      -0.01247579
Cl      18.22727015      15.51179550      15.68570614       0.18739004       0.02224736       0.03107172
Na      15.64009083      18.50195228      18.49158459       0.06944888      -0.05469816       0.15325369
Cl      18.50768629      18.52879970      18.39925564       0.00562458      -0.06529132       0.03532991
Na      18.44506579      15.80512161      18.46348669       0.13543445       0.01309649      -0.00219138
Cl      15.65116599      15.64269442      18.66504609       0.05173188       0.00128490      -0.03661171
Na      18.30044881      18.20976788      15.78134521      -0.03239091       0.03891324       0.09449366
Cl      15.61758268      18.61258145      15.81025101      -0.03950464      -0.08388918      -0.00459642
O       24.95452302      19.54735484       8.55657086       0.16702646      -0.02811722      -0.01428965
H       24.40080078      19.86475040       9.30821347       0.24367958       0.03281267      -0.01335688
H       25.39793164      18.73035097       8.86440131      -0.04369191       0.12761183      -0.15172546
O       23.39282279      16.36803834       7.61492612       0.03820559      -0.13224961       0.09934846
H       22.84272778      16.65467916       8.36844916      -0.08133800      -0.01951066      -0.07902621
H       23.21497679      15.41432950       7.52299403      -0.11551656       0.06308745      -0.06699187
O        7.93825604       4.68545716       6.73043869       0.07840989      -0.05183649       0.06895235
H        7.37482333       5.33748185       7.18681224       0.01491058      -0.04962824      -0.07296014
H        8.20754971       4.09350185       7.46275548       0.05870558       0.12656878       0.18676907
O        7.98931584      26.26493055      12.88402375       0.05678121       0.02241925       0.01251224
H        8.62940679      26.86687768      13.32076584      -0.08671907      -0.01527207       0.13528800
H        7.10322916      26.70807937      13.03797472       0.06754199       0.02919443      -0.17971389
O        8.31381316       1.39334351      11.56355966      -0.00638678      -0.07473832       0.02924588
H        8.24240910       0.44656280      11.33495812       0.05218472       0.02628736       0.20752031
H        9.29215826       1.60517936      11.57367668      -0.03775426       0.08828484      -0.11991744
O        3.15720857       2.66201779      16.13145512       0.04760188      -0.09846453      -0.34249067
H        2.19564251       2.84163225      16.07617597       0.09682588       0.20001307       0.05679990
H        3.22549889       1.83447433      16.66515248       0.03573699       0.17265587       0.02086722
O        5.10935235      12.10594796       0.96091278      -0.07543052       0.00222495      -0.11651190
H        4.66984856      11.44193203       1.52733559      -0.06778712       0.03197286      -0.08664326
H        6.03119576      11.78714097       0.81438217      -0.01621972       0.08020836       0.14635158
O        9.92436359       9.70652659       6.15494087       0.06246293      -0.10532142       0.00028995
H       10.09173867       8.94783208       6.75234777      -0.02588600      -0.00193500      -0.05066098
H       10.82103512      10.05129163       5.97004832       0.03275232      -0.06033295       0.28266680
O       15.81116643      24.88645089      18.29893612      -0.03892578       0.11960745      -0.15424673
H       16.76784018      24.78782349      18.12255423      -0.05269815      -0.02989214       0.01908560
H       15.67627519      25.71435923      18.79829342       0.03588235      -0.08156684       0.09360795
O       10.24140746      26.04453855       8.43655866      -0.08906703      -0.03125472      -0.07159160
H        9.71206598      25.31187861       8.06706689      -0.05834427      -0.02734333      -0.03984226
H       10.73626469      26.45272898       7.68132122      -0.05652148      -0.00684439      -0.02204478
O       22.36422853       9.52661901      18.44949652       0.03621796       0.01122095       0.01492870
H       21.46822913       9.89117148      18.35171384       0.06575481       0.06136118       0.04977616
H       22.85250530      10.14915282      19.04589513       0.08627425      -0.02179486       0.01982887
O       15.10496376      11.74373843       0.02613282      -0.01687314      -0.04954347      -0.03783169
H       14.72869226      12.64506377       0.07638331       0.05048549      -0.02713259       0.01362304
H       15.00852782      11.38576262       0.92764313      -0.13116345      -0.13105401      -0.09271196
O       23.87399470      25.11283666       5.75038768      -0.03072466      -0.11448151      -0.04611851
H       23.17760111      25.22063158       6.45848056       0.01197287       0.09046967      -0.17522676
H       23.93633473      24.12870946       5.70448822      -0.21372803       0.02678213       0.01324577
O       10.29491416       6.91904186       7.54889700      -0.19986829      -0.15036178       0.11016973
H        9.70089135       6.24010862       7.15540991       0.09984738       0.10166711      -0.06480426
H       11.06615646       6.42724717       7.88698880      -0.04000854       0.14069070      -0.14011064
O        9.75151379       0.19919982      14.53850156      -0.09672232      -0.02187341       0.01479387
H        9.76453204      -0.45046733      15.26136733      -0.18630818       0.05414931       0.07007205
H        9.14340817       0.96903126      14.76330963      -0.03632015       0.04175824      -0.04527812
O       24.04437650       7.19500811      14.98815058       0.00558379       0.07408416       0.03829809
H       24.99398590       6.97041228      15.08437684      -0.02622553      -0.00187303       0.03707431
H       24.04159256       7.78297027      14.19769860      -0.00593555       0.03147614       0.01861940
O       22.34416522       1.75593915      14.19570373      -0.02640054      -0.07825035      -0.02569297
H       22.93463100       0.96280209      14.33084923      -0.03626995      -0.08170338      -0.16284652
H       21.63485536       1.39599372      13.63206561      -0.10236347      -0.00539370       0.08156300
O        9.63003053      12.01681566      22.95856531      -0.04947614       0.00505524       0.00494128
H        9.40575724      12.49270798      23.79700455      -0.00531607      -0.05532492       0.03881469
H        8.77733091      11.87777439      22.46374854      -0.00798766       0.07002282       0.03352986
O        9.32955696      12.21505315       4.59646953       0.01144420      -0.04098949       0.00335453
H        9.34186509      11.25521353       4.77244050      -0.02480490       0.00100359       0.06154472
H       10.13885888      12.57818870       5.03315117      -0.00139328      -0.04287941      -0.04879138
O       14.20792842       3.31125520      20.20733685       0.05345456      -0.05193418       0.09051895
H       13.68780438       2.55444212      20.53719679       0.09131040      -0.08460195       0.07003750
H       14.99409707       2.86657203      19.77714203       0.04160786      -0.03530544       0.06106248
O       26.26280265       5.65873895       2.68089718       0.07672151       0.11759221      -0.00505332
H       25.95037304       5.77014917       3.60118348       0.00207957       0.03144868      -0.08239336
H       26.15728721       6.53080103       2.24463265      -0.07500132       0.08247965       0.14832681
O       15.43294788       4.55079065      14.04479195       0.02006858      -0.00509796       0.00684690
H       14.70354055       3.97074813      13.74400220      -0.00568902       0.02561179       0.07244445
H       16.22908747       4.32768068      13.53144645      -0.01612052      -0.06846964      -0.01064651
O       20.00702752      21.42152717      25.52609481       0.07530175       0.03372891       0.02807990
H       20.78405930      21.62822792      24.96450632      -0.01326743       0.01438837      -0.07122473
H       19.19392551      21.61591856      25.02158423       0.03969806      -0.24535014      -0.00257576
O        4.12933543      22.02191981      17.36125345       0.00322173       0.02652294      -0.05757089
H        3.53182426      22.41023466      18.05351914       0.02960426       0.11807422      -0.17278689
H        4.89109221      22.62747417      17.36509327      -0.01120502      -0.08698653      -0.07910837
O       21.05387917       7.10431582      14.47237496       0.05567876       0.21315914      -0.02029300
H       20.91305048       6.58632069      13.64623661       0.00715073      -0.02112812       0.15568013
H       20.14285419       7.38753041      14.68999227       0.03035353       0.03876718       0.06419961
O       26.45509137      16.92094838      23.05328861      -0.06222591       0.00159755      -0.01261762
H       25.50091288      16.77376622      23.21096380      -0.03025031      -0.01263155      -0.00547377
H       26.75181448      15.99523880      22.95798596      -0.00534636       0.02966800      -0.05003953
O        3.03281690      14.91506351       6.86594198       0.02606930       0.01838460       0.05411805
H        2.88805823      15.74335630       7.37659599       0.16300178       0.00476523       0.08557701
H        2.37082221      14.33677505       7.29993006       0.01623554       0.01763082      -0.05288476
O       22.36257786      23.18243666       2.80850911       0.07859302      -0.14561521      -0.09518838
H       22.76934344      23.76873640       3.47640772      -0.20354149      -0.05159798      -0.06577756
H       22.62722902      22.27661257       3.02791369       0.02363433      -0.12350127       0.01539801
O       12.85304742      28.45380163      20.88794097       0.06497610      -0.03565723      -0.12131083
H       12.75243526      27.57981416      20.39649228       0.25063825      -0.08971998       0.09164383
H       13.76550655      28.35062752      21.24161736      -0.20455304       0.00661737       0.24018788
O        3.37992335      16.35380734      26.91543212       0.23250902       0.07319628      -0.07730306
H        4.16496024      15.84383977      26.64489364      -0.11485318      -0.10502094      -0.09040354
H        2.96173490      16.64827049      26.05444875       0.07900575      -0.03997172      -0.03051222
O       24.32613788      18.84371325      11.19012329      -0.04811525      -0.19372234       0.01826842
H       24.87139521      18.43384036      11.90775955       0.13147135      -0.07132597      -0.06565837
H       24.07573177      19.70119176      11.59608906      -0.00069063      -0.16748278      -0.05940317
O       11.14105396       5.68219693      17.90819057       0.07303251      -0.08783539      -0.05285913
H       11.13055076       6.35400787      17.13497264      -0.10183437      -0.05149636      -0.00448540
H       11.28603410       4.83061496      17.45203438      -0.10689402      -0.01496738      -0.14023879
O       16.43831731      24.67008581      25.21810483      -0.04315069       0.16714804       0.18506157
H       17.31246499      24.38338839      25.54298230      -0.03016856       0.01080676      -0.00366832
H       16.21115177      25.35465520      25.90096855       0.12157847       0.21039788       0.15350404
O       13.99227935       9.47469319      26.50147257       0.05670891      -0.07723580      -0.06810296
H       13.89782502       9.70115926      25.55594587      -0.13007982       0.13304211       0.00270715
H       14.22633478      10.34483346      26.90770300       0.14013752      -0.17622675       0.09567169
O       26.00415433       1.90322325       6.10881583      -0.03872453       0.06001536      -0.08105364
H       25.09872633       2.23516010       6.24363697       0.08683395       0.12024429      -0.04552290
H       25.88412597       0.93858059       5.92413439      -0.10068314       0.07836635       0.17532569
O       15.86379620       4.53848119       5.30962567      -0.02647582      -0.04253812      -0.05115184
H       16.35912286       5.36604654       5.08724226      -0.05947898      -0.04706427       0.05849035
H       15.46987955       4.67098238       6.19474341      -0.04791579       0.00233977      -0.18405427
O        6.04537906       5.35487062      18.77085373      -0.00620548      -0.08155611      -0.02403470
H        5.96786437       5.12005874      17.82867865       0.09274229       0.00446416       0.00491358
H        5.11692272       5.32529853      19.09366541      -0.00405976       0.05530497      -0.13941896
O        3.79351111      27.71504921      21.89821274       0.06330824      -0.11869034       0.11309868
H        4.17974883      26.82197935      21.89901285       0.08398914      -0.09964415      -0.08859167
H        3.69862474      28.04922609      20.97910855       0.19575419       0.07262147       0.20025381
O        1.41867395       4.90427018      11.41178285      -0.08012786      -0.01235531       0.05877624
H        1.48450105       4.43799930      12.28584027      -0.09122065       0.04567072       0.01297034
H        1.51450556       5.85642534      11.62561699       0.07554415      -0.11551670       0.10408787
O       26.56163121      10.40354350      12.49911315       0.00563246       0.05700703      -0.19150546
H       27.44037876      10.17508771      12.09198437      -0.10984211       0.07522462       0.04569685
H       26.06123215      10.74974785      11.70492285       0.24251147       0.07904921      -0.05259059
O        7.43937235      18.13568928      11.62077201       0.14003184       0.06458186       0.24982515
H        8.02156399      18.83215772      11.26217400      -0.08373966      -0.23809406      -0.20630489
H        6.56692494      18.58094887      11.83071979       0.15234876       0.04015021      -0.14710452
O        4.81327768      11.83597812      10.32070901      -0.02258360      -0.14357938       0.27790737
H        5.73183576      12.03424728       9.95691994      -0.30711737       0.07181013      -0.04945082
H        5.01303796      12.00444969      11.26196836       0.21986419      -0.03178397       0.15174094
O        4.71630119      23.82082521       5.15819895       0.05878345       0.03713363      -0.00758631
H        4.11636653      24.20325443       5.83498847       0.07750716      -0.02336301       0.03443198
H        5.21762931      24.58401990       4.82103911      -0.06019595       0.06534050      -0.03327992
O        0.89092546       6.28139295      25.43143207      -0.12203863       0.13832918       0.12902659
H        0.09231190       5.80206145      25.74754993      -0.05499771       0.03079619      -0.08593942
H        1.07635173       6.91440953      26.14636287       0.05746122      -0.14469880       0.11177955
O        7.06593582      20.73884374      24.59909739       0.01231321      -0.02878581       0.10117368
H        6.42079526      21.31597745      25.04919927       0.00919778       0.03871471      -0.11830729
H        6.83448466      19.84544981      24.92374877       0.00216170       0.07836129      -0.12253140
O        1.06450789       3.27707482      25.83931167       0.06464809      -0.09075987       0.15758881
H        1.39859211       3.59505633      26.72452651       0.05632684      -0.15822819       0.11444204
H        1.59179457       3.72019836      25.14192061      -0.12814283       0.04722798       0.16976710
O        5.72083287      21.79038564      11.98629150      -0.01625563       0.03666699      -0.08228429
H        5.04341610      22.44195708      11.74684835       0.05222591       0.02862063      -0.00013559
H        6.50969369      21.85619193      11.38928830       0.04628434       0.05649244       0.16787593
O       19.25430740      22.08286169       0.68146250       0.04298280      -0.14771703       0.22206929
H       20.09558638      21.57824404       0.61490053      -0.01106352       0.09810667      -0.01363265
H       18.58816210      21.43656165       0.37125512      -0.06833208       0.09957831      -0.00908853
O       18.46724435       3.02137381      12.31502301       0.01375297       0.05189143      -0.05219553
H       19.26447636       2.71862644      11.83768512      -0.03498805       0.02236917      -0.03459388
H       17.92153492       3.42667221      11.58663552       0.04921800       0.07071576      -0.03297693
O        0.17120127       2.78449285       9.73143488       0.01947382      -0.09538393       0.00074728
H        1.07378650       3.03695587      10.02110037      -0.03648676       0.04299609      -0.10084052
H       -0.41385390       3.55752439       9.96843527      -0.00967684      -0.17040011      -0.03523314
O       21.06514651      13.63008059       5.93552336      -0.10624332       0.03228722       0.16201621
H       20.56892564      14.47831011       5.93116414      -0.06069313       0.00709813       0.00800526
H       20.43433717      12.97732756       5.53107499       0.06856581       0.03989791      -0.02591468
O       25.70061331       8.54435735      18.48340706       0.01434589      -0.12744837      -0.02126051
H       26.58670992       8.76849010      18.14268715      -0.01619998      -0.03829442      -0.02909070
H       25.13769361       9.23272622      18.07888049      -0.03348628      -0.11420017       0.12606071
O        2.76744410       0.85931936      25.54596223       0.05522994       0.07063314      -0.03804013
H        2.13067464       1.53438445      25.87561635      -0.04935749      -0.03471357      -0.10114867
H        3.39548413       0.79232904      26.30122413      -0.00049328       0.13413255      -0.01163391
O       25.12622636       3.75854039      24.00867929      -0.06301142       0.00428354       0.03252903
H       25.41207559       3.87852830      24.95138229      -0.12035354       0.12236838       0.03529979
H       24.62896790       2.90175597      23.96998318       0.09501601      -0.07896973       0.15559906
O       19.96866216      25.65784316       7.50700407       0.01833867      -0.01685946      -0.02242742
H       20.73225265      25.68041767       8.12483460      -0.10858400       0.00085332      -0.06122966
H       20.19425181      24.96212965       6.86848473      -0.08912088      -0.02290160      -0.02815241
O       23.88952219      23.93792820      25.54066980      -0.08881858       0.16694838      -0.02197434
H       23.03102858      24.16444680      25.94431428       0.01580369       0.00093967      -0.01606660
H       24.52520347      24.40113329      26.12897717       0.02841680      -0.11559682      -0.03285402
O       21.01677150      22.16764530       8.68044427       0.02915704       0.03166902       0.19544224
H       21.02202376      23.13367728       8.85548991      -0.10719840      -0.11557934      -0.12594029
H       20.09414453      21.86789105       8.53120720       0.16210024      -0.01893095       0.01778302
O       19.93840228      21.57652981      17.93271436       0.12779465       0.00226209       0.00718806
H       20.65241833      22.20402497      18.18602838       0.10741526      -0.03446403       0.15852523
H       20.41882218      20.78962472      17.59170603       0.16095325       0.01127283       0.03597023
O        0.97854724       4.33347185      17.31418366       0.19348671       0.05311852       0.05488575
H        1.10556733       3.81164928      18.13153606      -0.18553621      -0.18917909      -0.22242832
H        1.80336074       4.85149733      17.30548938      -0.02016179      -0.05826605       0.04609635
O       26.89021599       2.81067339      12.80836855      -0.16716918      -0.11420695       0.00728029
H       26.46707701       3.46524740      12.20749841      -0.04797886       0.01401634       0.07015458
H       27.05529976       2.02080900      12.25733758       0.01394183      -0.02178086      -0.06144600
O        1.23438413       0.36867390      15.50341143      -0.02123445      -0.15752299      -0.02348642
H        2.03319049       0.22500122      16.03953346      -0.07185449       0.04114526       0.03122051
H        1.55355254       0.77579592      14.67923148       0.00564312       0.03082879       0.09286584
O       27.68971450      19.92633650       5.58262423       0.02370161      -0.05462287       0.04580525
H       26.77941481      19.68466533       5.85192570      -0.01084389       0.09008950       0.03006070
H       28.12246070      19.97768343       6.45809040       0.00705548       0.02999492       0.03743854
O        7.57239708      17.20877998       4.69163956       0.03258914       0.05382870       0.03692100
H        7.25406513      17.98502022       4.19699805      -0.02089375       0.02860028       0.05440619
H        6.74983406      16.87968492       5.10542716       0.03569166      -0.12923928      -0.13779865
O       25.62328124       0.30282944      11.50595316      -0.00114238      -0.03159998      -0.03007120
H       25.10804544       1.06522387      11.16039732      -0.03091394      -0.01242225       0.12352297
H       25.91214955      -0.22022420      10.73411765      -0.11899616       0.08541371      -0.01796659
O       15.45674053      22.71208996      21.99929194      -0.04354544      -0.07468688       0.03660946
H       14.87065549      23.38884824      21.57564025       0.05290554      -0.06726015       0.03506235
H       15.48683566      22.00121253      21.33228938      -0.15822819      -0.16427988       0.11253570
O       25.23938001       8.21667410       1.61945842      -0.11601044      -0.08799775       0.04934578
H       24.39772862       7.81616239       1.33239056       0.01435004      -0.07850407      -0.00097947
H       25.30182609       9.10585474       1.18802744       0.07902208      -0.12690592       0.08609793
O       14.61719149      25.38034768      22.98863277      -0.00889364      -0.15654013       0.01596237
H       14.28963325      25.13674930      23.88507155      -0.05435972       0.02007262       0.04647660
H       15.58351252      25.17557544      23.01681534      -0.04059879      -0.27228454      -0.01917634
O       20.83500786      21.48087780      11.48964240      -0.10050538      -0.05327062       0.04455622
H       21.06237526      21.52229686      10.53609950       0.09274827       0.14108342       0.26067653
H       19.85174038      21.49479889      11.46579026      -0.02298830      -0.08178404       0.04162787
O        4.09511293       0.83607557      17.71359990       0.01306868      -0.17252055       0.04537243
H        4.30458928      -0.03064506      18.09613849       0.06322038      -0.15766945       0.06052805
H        4.86806683       1.40484237      17.89339153      -0.02101758      -0.15638337       0.11910051
O        3.60816442       7.63251049      14.55794319       0.00380370      -0.09053066       0.07854293
H        3.99549427       7.80110909      13.67899870      -0.10096544       0.04992220       0.09677748
H        3.45276330       6.66448420      14.53582630       0.10394300      -0.05521265      -0.01679388
O        6.76415382       3.70413948      11.24948246      -0.02394614       0.03438701      -0.01268833
H        6.17278046       3.99572123      11.96718068       0.06397742       0.04314490       0.00906245
H        6.36074957       4.15397145      10.48564042      -0.11318231      -0.03213811       0.01159647
O       15.60537386       5.83477071      20.35583838      -0.04229015       0.12247445      -0.03308739
H       15.12242671       5.13245267      20.84015567       0.10703751       0.08169586      -0.10552196
H       15.12049496       6.66596107      20.54488090      -0.05432072       0.05313207       0.12302984
O       25.83607941      26.95272606       6.33192023       0.05584472       0.02197881      -0.02647315
H       25.84399234      27.19556208       7.28469574       0.06068601       0.03882138      -0.07083112